 Gaussian 03, Revision B.04,
 Gaussian 03:  x86-Linux-G03RevB.04 2-Jun-2003

 ----------------------------------------------
 #p HF/aug-cc-pVQZ pop=full iop(3/33=1,3/36=-1)
 ----------------------------------------------

 -------------------
 Title card required
 -------------------
 Symbolic Z-matrix:
 Charge =  0 Multiplicity = 1

                         Standard orientation:
 ---------------------------------------------------------------------
 Center     Atomic     Atomic              Coordinates (Angstroms)
 Number     Number      Type              X           Y           Z
 ---------------------------------------------------------------------
    1          6             0        0.000000    0.000000    0.000000
 ---------------------------------------------------------------------

 SCF Done:  E(RHF) =  -37.6045376641     A.U. after    3 cycles

 Unable to determine electronic state:  an orbital has unidentified symmetry.
 Alpha  occ. eigenvalues --  -11.36535  -0.72565  -0.35861
 Alpha virt. eigenvalues --    0.01877   0.01877   0.08341   0.08989   0.10820
 Alpha virt. eigenvalues --    0.10820   0.23236   0.23236   0.24162   0.24162
 Alpha virt. eigenvalues --    0.24539   0.44525   0.46392   0.46392   0.50320

 Mulliken atomic charges:
              1
     1  C    0.000000
 Sum of Mulliken charges=   0.00000

 Normal termination of Gaussian 03 at Thu May 18 17:13:22 2006.
