 Gaussian 98, Revision A.11.3,
 Gaussian 98:  x86-Linux-G98RevA.11.3 5-Feb-2002

 -------------
 #P MP4/STO-3G
 -------------

 -----
 Water
 -----
 Symbolic Z-matrix:
 Charge =  0 Multiplicity = 1

                         Standard orientation:
 ---------------------------------------------------------------------
 Center     Atomic     Atomic              Coordinates (Angstroms)
 Number     Number      Type              X           Y           Z
 ---------------------------------------------------------------------
    1          8             0        0.000000    0.000000    0.119159
    2          1             0        0.000000    0.790649   -0.476637
    3          1             0        0.000000   -0.790649   -0.476637
 ---------------------------------------------------------------------

 SCF Done:  E(RHF) =  -74.9643287926     A.U. after    7 cycles

  The electronic state is 1-A1.
 Alpha  occ. eigenvalues --  -20.24375  -1.25064  -0.60317  -0.44547  -0.38821
 Alpha virt. eigenvalues --    0.57075   0.70859

 1\1\GINC-VMWARE-BAVM\SP\RMP4SDTQ-FC\STO-3G\H2O1\VMWARE\24-Jan-2007\0\\
 #P MP4/STO-3G\\Water\\0,1\O\H,1,0.99\H,1,0.99,2,106.\\Version=x86-Linu
 x-G98RevA.11.3\State=1-A1\HF=-74.9643288\MP2=-75.0022821\MP3=-75.01280
 09\MP4D=-75.0161936\MP4DQ=-75.0159011\MP4SDQ=-75.0160136\MP4SDTQ=-75.0
 16068\RMSD=3.375e-10\PG=C02V [C2(O1),SGV(H2)]\\@

 IT IS A CAPITAL MISTAKE TO THEORIZE BEFORE ONE HAS

 Normal termination of Gaussian 98.
