 Gaussian 98, Revision A.6,
 Gaussian 98:  SGI-G98RevA.6 19-Oct-1998

 ----------------------------------------------------------------------
 #P B3LYP/LANL2DZ Test SCF=(Tight,MaxCycle=200) IOp(3/33=1) Pop=Full Gu
 ess=NoSymm
 ----------------------------------------------------------------------

 -------------------------------------------
 Ru(NH3)4(ooC6H4) on the optimized structure
 -------------------------------------------
 Symbolic Z-matrix:
 Charge =  2 Multiplicity = 1

                         Standard orientation:
 ---------------------------------------------------------------------
 Center     Atomic     Atomic              Coordinates (Angstroms)
 Number     Number      Type              X           Y           Z
 ---------------------------------------------------------------------
    1         44             0        0.000000    0.000000    1.147152
    2          8             0        0.000000    1.296513   -0.457440
    3          8             0        0.000000   -1.296513   -0.457440
    4          7             0        0.000000    1.621813    2.588073
    5          7             0        0.000000   -1.621813    2.588073
    6          7             0        2.178684    0.000000    1.136695
    7          7             0       -2.178684    0.000000    1.136695
    8          6             0        0.000000    0.749141   -1.647938
    9          6             0        0.000000   -0.749141   -1.647938
   10          6             0        0.000000    1.466448   -2.884074
   11          6             0        0.000000   -1.466448   -2.884074
   12          6             0        0.000000    0.730645   -4.055031
   13          6             0        0.000000   -0.730645   -4.055031
   14          1             0       -2.511083    0.830808    0.632460
   15          1             0        2.511083   -0.830808    0.632460
   16          1             0        2.511083    0.830808    0.632460
   17          1             0       -2.511083   -0.830808    0.632460
   18          1             0        2.622310    0.000000    2.061800
   19          1             0       -2.622310    0.000000    2.061800
   20          1             0        0.823812    1.639827    3.199449
   21          1             0       -0.823812   -1.639827    3.199449
   22          1             0       -0.823812    1.639827    3.199449
   23          1             0        0.823812   -1.639827    3.199449
   24          1             0        0.000000    2.489616    2.036911
   25          1             0        0.000000   -2.489616    2.036911
   26          1             0        0.000000    2.551294   -2.878368
   27          1             0        0.000000   -2.551294   -2.878368
   28          1             0        0.000000    1.242680   -5.013098
   29          1             0        0.000000   -1.242680   -5.013098
 ---------------------------------------------------------------------

 SCF Done:  E(RB+HF-LYP) =  -701.128038231     A.U. after   54 cycles

  The electronic state is 1-A1.
 Alpha  occ. eigenvalues --  -19.45185 -19.45185 -14.64368 -14.64368 -14.64301
 Alpha  occ. eigenvalues --  -14.64300 -10.55662 -10.55636 -10.47231 -10.47198
 Alpha  occ. eigenvalues --  -10.46061 -10.46059  -3.17059  -2.05495  -2.05049
 Alpha  occ. eigenvalues --   -2.03762  -1.34873  -1.30994  -1.18560  -1.17905
 Alpha  occ. eigenvalues --   -1.17825  -1.17741  -1.11160  -1.01823  -0.98126
 Alpha  occ. eigenvalues --   -0.87948  -0.86245  -0.80099  -0.79860  -0.79693
 Alpha  occ. eigenvalues --   -0.78725  -0.78424  -0.78137  -0.77950  -0.77844
 Alpha  occ. eigenvalues --   -0.77540  -0.76165  -0.75473  -0.71608  -0.71077
 Alpha  occ. eigenvalues --   -0.70008  -0.67809  -0.65428  -0.65209  -0.65026
 Alpha  occ. eigenvalues --   -0.64191  -0.63335  -0.61803  -0.59387  -0.58960
 Alpha  occ. eigenvalues --   -0.57674  -0.51679  -0.49903  -0.48544  -0.48326
 Alpha virt. eigenvalues --   -0.41070  -0.28528  -0.28156  -0.26278  -0.26166
 Alpha virt. eigenvalues --   -0.25952  -0.24598  -0.22938  -0.21081  -0.15334
 Alpha virt. eigenvalues --   -0.15155  -0.14655  -0.11985  -0.11628  -0.11475

 Normal termination of Gaussian 98.
