                         Program Version 2.6 - Revision 00 -
|  1> #divinyl-benzene
|  2>
|  3> ! RKS B3LYP OPT
|  4>
|  5> %basis basis _3_21G
|  6> end
|  7>
|  8> * xyz 0 1
|  9>  C     -1.275568      0.692949      0.000000
| 10>  C     -1.211011     -0.742036      0.000000
| 11>  C      0.032360     -1.415271      0.000000
| 12>  C      1.275568     -0.692949      0.000000
| 13>  C      1.211011      0.742036      0.000000
| 14>  H     -2.143529     -1.330976      0.000000
| 15>  H      0.053320     -2.519080      0.000000
| 16>  H      2.143529      1.330976      0.000000
| 17>  C      2.571440     -1.457016      0.000000
| 18>  C      3.824633     -0.930233      0.000000
| 19>  H      4.012223      0.154429      0.000000
| 20>  H      2.455501     -2.556634      0.000000
| 21>  H      4.714807     -1.577980      0.000000
| 22>  C     -2.571440      1.457016      0.000000
| 23>  H     -2.455501      2.556634      0.000000
| 24>  C     -3.824633      0.930233      0.000000
| 25>  H     -4.012223     -0.154429      0.000000
| 26>  H     -4.714807      1.577980      0.000000
| 27>  C     -0.032360      1.415271      0.000000
| 28>  H     -0.053320      2.519080      0.000000
| 29> *
| 30>
| 31>                          ****END OF INPUT****
 Total Charge           Charge          ....    0
 Multiplicity           Mult            ....    1
 Number of Electrons    NEL             ....   70
FINAL SINGLE POINT ENERGY     -384.658792711
FINAL SINGLE POINT ENERGY     -384.666513371
FINAL SINGLE POINT ENERGY     -384.666647110
FINAL SINGLE POINT ENERGY     -384.666592362
FINAL SINGLE POINT ENERGY     -384.666593316
FINAL SINGLE POINT ENERGY     -384.666646530
FINAL SINGLE POINT ENERGY     -384.666659392
FINAL SINGLE POINT ENERGY     -384.666644552
                    ***********************HURRAY********************

CARTESIAN COORDINATES (ANGSTROEM)
---------------------------------
  C    -1.253473    0.673562   -0.001768
  C    -1.188216   -0.732524   -0.001718
  C     0.037911   -1.386348   -0.001787
  C     1.253472   -0.673562   -0.000787
  C     1.188215    0.732524   -0.000806
  H    -2.101734   -1.315291   -0.002520
  H     0.066487   -2.471490   -0.001436
  H     2.101733    1.315292   -0.000537
  C     2.520853   -1.426335   -0.000357
  C     3.758089   -0.917661    0.002362
  H     3.950789    0.150588    0.004752
  H     2.402195   -2.508463   -0.002691
  H     4.631443   -1.560406    0.002911
  C    -2.520854    1.426334   -0.001230
  H    -2.402198    2.508461   -0.003945
  C    -3.758087    0.917662    0.002788
  H    -3.950784   -0.150586    0.006095
  H    -4.631440    1.560407    0.003945
  C    -0.037911    1.386348   -0.001865
  H    -0.066488    2.471490   -0.001404

 Multiplicity           Mult            ....    1
 Number of Electrons    NEL             ....   70
 Basis Dimension        Dim             ....  110

ORBITAL ENERGIES
----------------

  NO   OCC          E(Eh)            E(eV)
   0   2.0000     -10.138170      -275.8667
   1   2.0000     -10.138084      -275.8644
   2   2.0000     -10.130073      -275.6464
   3   2.0000     -10.130062      -275.6461
   4   2.0000     -10.128237      -275.5964
   5   2.0000     -10.128215      -275.5958
   6   2.0000     -10.126560      -275.5508
   7   2.0000     -10.126255      -275.5425
   8   2.0000     -10.117784      -275.3120
   9   2.0000     -10.117778      -275.3118
  10   2.0000      -0.865717       -23.5568
  11   2.0000      -0.805864       -21.9281
  12   2.0000      -0.766958       -20.8695
  13   2.0000      -0.749887       -20.4049
  14   2.0000      -0.716339       -19.4921
  15   2.0000      -0.639107       -17.3905
  16   2.0000      -0.609027       -16.5721
  17   2.0000      -0.573955       -15.6177
  18   2.0000      -0.557631       -15.1735
  19   2.0000      -0.504980       -13.7409
  20   2.0000      -0.491436       -13.3723
  21   2.0000      -0.457123       -12.4386
  22   2.0000      -0.448309       -12.1988
  23   2.0000      -0.442061       -12.0288
  24   2.0000      -0.424144       -11.5413
  25   2.0000      -0.405921       -11.0454
  26   2.0000      -0.390884       -10.6362
  27   2.0000      -0.381260       -10.3743
  28   2.0000      -0.355462        -9.6724
  29   2.0000      -0.347132        -9.4457
  30   2.0000      -0.336562        -9.1581
  31   2.0000      -0.320978        -8.7340
  32   2.0000      -0.268128        -7.2960
  33   2.0000      -0.253086        -6.8866
  34   2.0000      -0.209740        -5.7072
  35   0.0000      -0.042822        -1.1652
  36   0.0000       0.006743         0.1835
  37   0.0000       0.025975         0.7068
  38   0.0000       0.097286         2.6472
  39   0.0000       0.114703         3.1211

MULLIKEN ATOMIC CHARGES
-----------------------
   0 C :   -0.015552
   1 C :   -0.190501
   2 C :   -0.180221
   3 C :   -0.015552
   4 C :   -0.190501
   5 H :    0.185296
   6 H :    0.184916
   7 H :    0.185296
   8 C :   -0.170224
   9 C :   -0.373608
  10 H :    0.184879
  11 H :    0.184795
  12 H :    0.190220
  13 C :   -0.170224
  14 H :    0.184795
  15 C :   -0.373608
  16 H :    0.184879
  17 H :    0.190220
  18 C :   -0.180221
  19 H :    0.184916
Sum of atomic charges:    0.0000000

LOEWDIN ATOMIC CHARGES
----------------------
   0 C :   -0.029302
   1 C :   -0.085769
   2 C :   -0.087483
   3 C :   -0.029302
   4 C :   -0.085769
   5 H :    0.097324
   6 H :    0.096067
   7 H :    0.097324
   8 C :   -0.083905
   9 C :   -0.189696
  10 H :    0.091322
  11 H :    0.093262
  12 H :    0.098181
  13 C :   -0.083905
  14 H :    0.093262
  15 C :   -0.189697
  16 H :    0.091322
  17 H :    0.098181
  18 C :   -0.087483
  19 H :    0.096067

  Mayer bond orders larger than 0.1
B(  0-C ,  1-C ) :   1.3435 B(  0-C , 13-C ) :   1.0540 B(  0-C , 18-C ) :   1.3204
B(  1-C ,  2-C ) :   1.4350 B(  1-C ,  5-H ) :   0.9226 B(  2-C ,  3-C ) :   1.3204
B(  2-C ,  6-H ) :   0.9279 B(  3-C ,  4-C ) :   1.3435 B(  3-C ,  8-C ) :   1.0540
B(  4-C ,  7-H ) :   0.9226 B(  4-C , 18-C ) :   1.4350 B(  8-C ,  9-C ) :   1.8375
B(  8-C , 11-H ) :   0.9233 B(  9-C , 10-H ) :   0.9248 B(  9-C , 12-H ) :   0.9274
B( 13-C , 14-H ) :   0.9233 B( 13-C , 15-C ) :   1.8375 B( 15-C , 16-H ) :   0.9248
B( 15-C , 17-H ) :   0.9274 B( 18-C , 19-H ) :   0.9279

FINAL SINGLE POINT ENERGY     -384.666614760

DIPOLE MOMENT
-------------
                                X             Y             Z
Electronic contribution:     -0.00000      -0.00000      -0.00851
Nuclear contribution   :      0.00000       0.00000       0.00895
                        -----------------------------------------
Total Dipole Moment    :      0.00000       0.00000       0.00044
                        -----------------------------------------
Magnitude (a.u.)       :      0.00044
Magnitude (Debye)      :      0.00112

                             ****ORCA TERMINATED NORMALLY****
TOTAL RUN TIME: 0 days 0 hours 7 minutes 33 seconds 381 msec
